TITLE = "vorticityexample"
VARIABLES = "x", "y", "u", "v"
ZONE T="Body", I=140, J=200, F=POINT
-5 -7 0.997748 -0.0325953
-5 -6.9 0.997524 -0.0328941
-5 -6.8 0.997365 -0.0333066
-5 -6.7 0.997169 -0.0338668
-5 -6.6 0.996852 -0.0345135
-5 -6.5 0.996413 -0.0351669
-5 -6.4 0.995889 -0.0357888
-5 -6.3 0.995314 -0.0363738
-5 -6.2 0.994704 -0.0369282
-5 -6.1 0.994069 -0.0374595
-5 -6 0.993411 -0.0379736
-5 -5.9 0.992731 -0.0384742
-5 -5.8 0.992028 -0.0389638
-5 -5.7 0.991301 -0.0394435
-5 -5.6 0.99055 -0.039914
-5 -5.5 0.989772 -0.0403752
-5 -5.4 0.988967 -0.0408268
-5 -5.3 0.988134 -0.0412679
-5 -5.2 0.987272 -0.0416977
-5 -5.1 0.98638 -0.0421151
-5 -5 0.985456 -0.0425187
-5 -4.9 0.984501 -0.0429071
-5 -4.8 0.983513 -0.0432787
-5 -4.7 0.982492 -0.0436319
-5 -4.6 0.981438 -0.0439648
-5 -4.5 0.980349 -0.0442754
-5 -4.4 0.979226 -0.0445617
-5 -4.3 0.978068 -0.0448215
-5 -4.2 0.976875 -0.0450526
-5 -4.1 0.975647 -0.0452525
-5 -4 0.974384 -0.0454187
-5 -3.9 0.973087 -0.0455486
-5 -3.8 0.971755 -0.0456395
-5 -3.7 0.97039 -0.0456885
-5 -3.6 0.968991 -0.0456929
-5 -3.5 0.967561 -0.0456495
-5 -3.4 0.966101 -0.0455554
-5 -3.3 0.964611 -0.0454073
-5 -3.2 0.963094 -0.0452023
-5 -3.1 0.961551 -0.044937
-5 -3 0.959985 -0.0446084
-5 -2.9 0.958398 -0.0442133
-5 -2.8 0.956794 -0.0437485
-5 -2.7 0.955175 -0.0432112
-5 -2.6 0.953546 -0.0425985
-5 -2.5 0.95191 -0.0419075
-5 -2.4 0.950271 -0.0411359
-5 -2.3 0.948634 -0.0402812
-5 -2.2 0.947004 -0.0393416
-5 -2.1 0.945386 -0.0383154
-5 -2 0.943786 -0.037201
-5 -1.9 0.942209 -0.0359977
-5 -1.8 0.940662 -0.0347049
-5 -1.7 0.93915 -0.0333226
-5 -1.6 0.937681 -0.0318511
-5 -1.5 0.936261 -0.0302916
-5 -1.4 0.934896 -0.0286454
-5 -1.3 0.933593 -0.0269149
-5 -1.2 0.932358 -0.0251026
-5 -1.1 0.931199 -0.023212
-5 -1 0.930121 -0.0212471
-5 -0.9 0.92913 -0.0192124
-5 -0.8 0.928233 -0.0171132
-5 -0.7 0.927435 -0.0149554
-5 -0.6 0.926741 -0.0127454
-5 -0.5 0.926155 -0.01049
-5 -0.4 0.925681 -0.00819663
-5 -0.3 0.925322 -0.00587314
-5 -0.2 0.925081 -0.00352766
-5 -0.1 0.92496 -0.00116856
-5 -8.13238e-15 0.92496 0.00119558
-5 0.1 0.92508 0.00355614
-5 0.2 0.925321 0.00590452
-5 0.3 0.925681 0.00823222
-5 0.4 0.926158 0.010531
-5 0.5 0.926749 0.0127929
-5 0.6 0.92745 0.0150104
-5 0.7 0.928257 0.0171764
-5 0.8 0.929165 0.0192841
-5 0.9 0.930168 0.0213274
-5 1 0.931261 0.0233004
-5 1.1 0.932437 0.0251982
-5 1.2 0.933689 0.0270162
-5 1.3 0.935011 0.0287507
-5 1.4 0.936395 0.0303986
-5 1.5 0.937836 0.0319576
-5 1.6 0.939326 0.0334261
-5 1.7 0.940858 0.034803
-5 1.8 0.942426 0.036088
-5 1.9 0.944022 0.0372811
-5 2 0.945642 0.038383
-5 2.1 0.947278 0.0393947
-5 2.2 0.948925 0.0403177
-5 2.3 0.950578 0.041154
-5 2.4 0.952231 0.0419056
-5 2.5 0.95388 0.042575
-5 2.6 0.95552 0.0431649
-5 2.7 0.957148 0.0436783
-5 2.8 0.958759 0.0441181
-5 2.9 0.960351 0.0444876
-5 3 0.96192 0.0447901
-5 3.1 0.963464 0.0450288
-5 3.2 0.96498 0.0452071
-5 3.3 0.966467 0.0453283
-5 3.4 0.967922 0.0453958
-5 3.5 0.969345 0.0454128
-5 3.6 0.970734 0.0453825
-5 3.7 0.972089 0.0453079
-5 3.8 0.973408 0.0451922
-5 3.9 0.97469 0.0450381
-5 4 0.975937 0.0448486
-5 4.1 0.977147 0.0446261
-5 4.2 0.978321 0.0443732
-5 4.3 0.979458 0.0440924
-5 4.4 0.980559 0.0437857
-5 4.5 0.981623 0.0434554
-5 4.6 0.982652 0.0431033
-5 4.7 0.983644 0.0427313
-5 4.8 0.9846 0.0423413
-5 4.9 0.985521 0.0419354
-5 5 0.986404 0.0415158
-5 5.1 0.987251 0.0410855
-5 5.2 0.988063 0.0406477
-5 5.3 0.98884 0.040206
-5 5.4 0.989587 0.0397627
-5 5.5 0.990306 0.0393187
-5 5.6 0.991 0.0388736
-5 5.7 0.991672 0.0384264
-5 5.8 0.99232 0.0379764
-5 5.9 0.992947 0.0375233
-5 6 0.99355 0.0370674
-5 6.1 0.994131 0.0366094
-5 6.2 0.994689 0.03615
-5 6.3 0.995225 0.03569
-5 6.4 0.99574 0.0352302
-5 6.5 0.996234 0.0347712
-5 6.6 0.996708 0.0343136
-5 6.7 0.997162 0.0338581
-5 6.8 0.997598 0.033405
-5 6.9 0.998015 0.0329548
-5 7 0.998415 0.0325079
-4.9 -7 0.99796 -0.0328817
-4.9 -6.9 0.997814 -0.0330349
-4.9 -6.8 0.997879 -0.0333989
-4.9 -6.7 0.997869 -0.0340979
-4.9 -6.6 0.997582 -0.0349226
-4.9 -6.5 0.997094 -0.0356897
-4.9 -6.4 0.996515 -0.0363706
-4.9 -6.3 0.995896 -0.0369882
-4.9 -6.2 0.995257 -0.037565
-4.9 -6.1 0.994601 -0.038116
-4.9 -6 0.993928 -0.0386498
-4.9 -5.9 0.993237 -0.0391713
-4.9 -5.8 0.992524 -0.0396833
-4.9 -5.7 0.991789 -0.040187
-4.9 -5.6 0.991028 -0.0406829
-4.9 -5.5 0.990242 -0.0411709
-4.9 -5.4 0.989428 -0.0416504
-4.9 -5.3 0.988585 -0.0421207
-4.9 -5.2 0.987711 -0.0425808
-4.9 -5.1 0.986806 -0.0430294
-4.9 -5 0.985869 -0.0434651
-4.9 -4.9 0.984898 -0.0438865
-4.9 -4.8 0.983893 -0.0442918
-4.9 -4.7 0.982853 -0.0446794
-4.9 -4.6 0.981777 -0.0450472
-4.9 -4.5 0.980665 -0.0453932
-4.9 -4.4 0.979517 -0.0457153
-4.9 -4.3 0.978331 -0.0460111
-4.9 -4.2 0.977109 -0.0462784
-4.9 -4.1 0.975848 -0.0465145
-4.9 -4 0.97455 -0.0467168
-4.9 -3.9 0.973215 -0.0468825
-4.9 -3.8 0.971843 -0.0470088
-4.9 -3.7 0.970434 -0.0470926
-4.9 -3.6 0.968989 -0.0471308
-4.9 -3.5 0.967509 -0.0471203
-4.9 -3.4 0.965995 -0.0470577
-4.9 -3.3 0.964449 -0.0469397
-4.9 -3.2 0.962872 -0.0467628
-4.9 -3.1 0.961266 -0.0465236
-4.9 -3 0.959634 -0.0462185
-4.9 -2.9 0.957978 -0.0458441
-4.9 -2.8 0.956301 -0.045397
-4.9 -2.7 0.954607 -0.0448739
-4.9 -2.6 0.952898 -0.0442714
-4.9 -2.5 0.95118 -0.0435866
-4.9 -2.4 0.949457 -0.0428165
-4.9 -2.3 0.947734 -0.0419585
-4.9 -2.2 0.946015 -0.0410104
-4.9 -2.1 0.944307 -0.0399699
-4.9 -2 0.942615 -0.0388356
-4.9 -1.9 0.940946 -0.0376061
-4.9 -1.8 0.939306 -0.0362808
-4.9 -1.7 0.937702 -0.0348593
-4.9 -1.6 0.936141 -0.0333419
-4.9 -1.5 0.93463 -0.0317296
-4.9 -1.4 0.933176 -0.0300237
-4.9 -1.3 0.931786 -0.0282265
-4.9 -1.2 0.930468 -0.0263407
-4.9 -1.1 0.929229 -0.0243697
-4.9 -1 0.928075 -0.0223179
-4.9 -0.9 0.927015 -0.02019
-4.9 -0.8 0.926053 -0.0179918
-4.9 -0.7 0.925197 -0.0157293
-4.9 -0.6 0.924451 -0.0134096
-4.9 -0.5 0.923822 -0.0110401
-4.9 -0.4 0.923312 -0.00862889
-4.9 -0.3 0.922926 -0.00618451
-4.9 -0.2 0.922666 -0.00371583
-4.9 -0.1 0.922535 -0.00123206
-4.9 -8.13238e-15 0.922534 0.00125744
-4.9 0.1 0.922663 0.00374317
-4.9 0.2 0.922921 0.00621571
-4.9 0.3 0.923307 0.00866572
-4.9 0.4 0.923818 0.0110841
-4.9 0.5 0.924451 0.0134622
-4.9 0.6 0.925203 0.0157917
-4.9 0.7 0.926068 0.0180646
-4.9 0.8 0.92704 0.0202737
-4.9 0.9 0.928114 0.0224122
-4.9 1 0.929282 0.0244741
-4.9 1.1 0.930539 0.0264539
-4.9 1.2 0.931876 0.0283469
-4.9 1.3 0.933287 0.0301492
-4.9 1.4 0.934763 0.0318577
-4.9 1.5 0.936297 0.0334701
-4.9 1.6 0.937882 0.0349847
-4.9 1.7 0.939509 0.0364007
-4.9 1.8 0.941172 0.0377178
-4.9 1.9 0.942864 0.0389364
-4.9 2 0.944577 0.0400574
-4.9 2.1 0.946305 0.0410821
-4.9 2.2 0.948043 0.0420124
-4.9 2.3 0.949784 0.0428505
-4.9 2.4 0.951523 0.0435989
-4.9 2.5 0.953256 0.0442604
-4.9 2.6 0.954976 0.0448381
-4.9 2.7 0.956681 0.0453353
-4.9 2.8 0.958365 0.0457554
-4.9 2.9 0.960027 0.046102
-4.9 3 0.961663 0.0463788
-4.9 3.1 0.96327 0.0465893
-4.9 3.2 0.964846 0.0467373
-4.9 3.3 0.966389 0.0468265
-4.9 3.4 0.967897 0.0468603
-4.9 3.5 0.96937 0.0468424
-4.9 3.6 0.970805 0.0467762
-4.9 3.7 0.972202 0.046665
-4.9 3.8 0.973561 0.0465121
-4.9 3.9 0.974881 0.0463205
-4.9 4 0.976162 0.0460931
-4.9 4.1 0.977404 0.0458329
-4.9 4.2 0.978607 0.0455423
-4.9 4.3 0.979771 0.0452239
-4.9 4.4 0.980896 0.0448799
-4.9 4.5 0.981983 0.0445125
-4.9 4.6 0.983032 0.0441235
-4.9 4.7 0.984044 0.0437146
-4.9 4.8 0.985017 0.0432876
-4.9 4.9 0.985952 0.0428441
-4.9 5 0.986848 0.0423866
-4.9 5.1 0.987704 0.0419182
-4.9 5.2 0.98852 0.0414436
-4.9 5.3 0.989299 0.0409679
-4.9 5.4 0.990044 0.0404951
-4.9 5.5 0.990762 0.0400257
-4.9 5.6 0.991458 0.0395576
-4.9 5.7 0.992131 0.0390881
-4.9 5.8 0.992783 0.0386155
-4.9 5.9 0.993413 0.0381395
-4.9 6 0.994018 0.0376605
-4.9 6.1 0.994601 0.0371795
-4.9 6.2 0.99516 0.0366974
-4.9 6.3 0.995696 0.0362152
-4.9 6.4 0.99621 0.0357339
-4.9 6.5 0.996703 0.035254
-4.9 6.6 0.997174 0.0347763
-4.9 6.7 0.997626 0.0343013
-4.9 6.8 0.998058 0.0338295
-4.9 6.9 0.998472 0.0333614
-4.9 7 0.998868 0.0328972
-4.8 -7 0.99799 -0.0332582
-4.8 -6.9 0.99785 -0.033054
-4.8 -6.8 0.998486 -0.0332016
-4.8 -6.7 0.998871 -0.0343014
-4.8 -6.6 0.998486 -0.0354421
-4.8 -6.5 0.997845 -0.0363116
-4.8 -6.4 0.997169 -0.0370175
-4.8 -6.3 0.996496 -0.0376428
-4.8 -6.2 0.995825 -0.0382272
-4.8 -6.1 0.99515 -0.0387893
-4.8 -6 0.994464 -0.039338
-4.8 -5.9 0.993763 -0.0398779
-4.8 -5.8 0.993043 -0.040411
-4.8 -5.7 0.992301 -0.0409382
-4.8 -5.6 0.991534 -0.0414596
-4.8 -5.5 0.99074 -0.0419748
-4.8 -5.4 0.989918 -0.0424832
-4.8 -5.3 0.989065 -0.0429837
-4.8 -5.2 0.988181 -0.0434753
-4.8 -5.1 0.987265 -0.0439565
-4.8 -5 0.986314 -0.0444259
-4.8 -4.9 0.985329 -0.0448819
-4.8 -4.8 0.984307 -0.0453227
-4.8 -4.7 0.983249 -0.0457465
-4.8 -4.6 0.982153 -0.0461513
-4.8 -4.5 0.981019 -0.0465348
-4.8 -4.4 0.979845 -0.046895
-4.8 -4.3 0.978633 -0.0472293
-4.8 -4.2 0.97738 -0.0475353
-4.8 -4.1 0.976087 -0.0478102
-4.8 -4 0.974754 -0.0480514
-4.8 -3.9 0.97338 -0.0482558
-4.8 -3.8 0.971967 -0.0484205
-4.8 -3.7 0.970514 -0.0485421
-4.8 -3.6 0.969021 -0.0486175
-4.8 -3.5 0.967491 -0.0486432
-4.8 -3.4 0.965922 -0.0486155
-4.8 -3.3 0.964318 -0.0485309
-4.8 -3.2 0.96268 -0.0483857
-4.8 -3.1 0.961009 -0.0481759
-4.8 -3 0.959308 -0.0478979
-4.8 -2.9 0.957579 -0.0475477
-4.8 -2.8 0.955826 -0.0471216
-4.8 -2.7 0.954052 -0.0466158
-4.8 -2.6 0.952261 -0.0460267
-4.8 -2.5 0.950456 -0.0453509
-4.8 -2.4 0.948644 -0.044585
-4.8 -2.3 0.946829 -0.0437261
-4.8 -2.2 0.945016 -0.0427713
-4.8 -2.1 0.943212 -0.0417184
-4.8 -2 0.941423 -0.0405653
-4.8 -1.9 0.939655 -0.0393104
-4.8 -1.8 0.937915 -0.0379528
-4.8 -1.7 0.936211 -0.0364919
-4.8 -1.6 0.934551 -0.0349278
-4.8 -1.5 0.932941 -0.0332612
-4.8 -1.4 0.931391 -0.0314935
-4.8 -1.3 0.929907 -0.0296268
-4.8 -1.2 0.928499 -0.0276639
-4.8 -1.1 0.927173 -0.0256085
-4.8 -1 0.925937 -0.0234649
-4.8 -0.9 0.9248 -0.0212382
-4.8 -0.8 0.923768 -0.0189345
-4.8 -0.7 0.922848 -0.0165605
-4.8 -0.6 0.922046 -0.0141236
-4.8 -0.5 0.921368 -0.011632
-4.8 -0.4 0.920819 -0.00909439
-4.8 -0.3 0.920403 -0.0065202
-4.8 -0.2 0.920123 -0.00391914
-4.8 -0.1 0.919981 -0.00130128
-4.8 -8.13238e-15 0.919978 0.00132304
-4.8 0.1 0.920116 0.00394342
-4.8 0.2 0.920393 0.00654944
-4.8 0.3 0.920807 0.00913086
-4.8 0.4 0.921356 0.0116777
-4.8 0.5 0.922036 0.0141803
-4.8 0.6 0.922843 0.0166295
-4.8 0.7 0.92377 0.0190167
-4.8 0.8 0.924813 0.0213339
-4.8 0.9 0.925964 0.0235738
-4.8 1 0.927216 0.0257299
-4.8 1.1 0.928561 0.0277964
-4.8 1.2 0.929991 0.0297683
-4.8 1.3 0.931498 0.0316416
-4.8 1.4 0.933073 0.0334131
-4.8 1.5 0.934708 0.0350804
-4.8 1.6 0.936395 0.0366421
-4.8 1.7 0.938125 0.0380973
-4.8 1.8 0.93989 0.0394462
-4.8 1.9 0.941683 0.0406893
-4.8 2 0.943497 0.041828
-4.8 2.1 0.945324 0.042864
-4.8 2.2 0.947158 0.0437994
-4.8 2.3 0.948993 0.0446368
-4.8 2.4 0.950823 0.0453791
-4.8 2.5 0.952643 0.0460296
-4.8 2.6 0.954448 0.0465918
-4.8 2.7 0.956233 0.0470693
-4.8 2.8 0.957995 0.0474662
-4.8 2.9 0.95973 0.0477863
-4.8 3 0.961435 0.0480336
-4.8 3.1 0.963108 0.0482123
-4.8 3.2 0.964745 0.0483264
-4.8 3.3 0.966346 0.0483798
-4.8 3.4 0.967909 0.0483765
-4.8 3.5 0.969432 0.0483203
-4.8 3.6 0.970914 0.0482149
-4.8 3.7 0.972355 0.0480638
-4.8 3.8 0.973754 0.0478706
-4.8 3.9 0.975111 0.0476385
-4.8 4 0.976427 0.0473706
-4.8 4.1 0.9777 0.0470699
-4.8 4.2 0.978932 0.0467392
-4.8 4.3 0.980122 0.0463809
-4.8 4.4 0.981272 0.0459976
-4.8 4.5 0.982381 0.0455911
-4.8 4.6 0.983451 0.0451635
-4.8 4.7 0.984481 0.0447161
-4.8 4.8 0.985472 0.0442503
-4.8 4.9 0.986423 0.0437673
-4.8 5 0.987333 0.0432687
-4.8 5.1 0.988198 0.0427577
-4.8 5.2 0.989016 0.0422408
-4.8 5.3 0.98979 0.0417272
-4.8 5.4 0.990528 0.0412243
-4.8 5.5 0.991241 0.0407319
-4.8 5.6 0.991936 0.0402436
-4.8 5.7 0.992613 0.0397533
-4.8 5.8 0.993269 0.0392583
-4.8 5.9 0.993902 0.0387587
-4.8 6 0.994511 0.0382556
-4.8 6.1 0.995094 0.0377505
-4.8 6.2 0.995654 0.0372448
-4.8 6.3 0.996189 0.0367396
-4.8 6.4 0.996702 0.036236
-4.8 6.5 0.997192 0.0357346
-4.8 6.6 0.997661 0.0352363
-4.8 6.7 0.998109 0.0347414
-4.8 6.8 0.998538 0.0342505
-4.8 6.9 0.998947 0.033764
-4.8 7 0.999339 0.0332821
-4.7 -7 0.99786 -0.0340594
-4.7 -6.9 0.997117 -0.033501
-4.7 -6.8 0.999475 -0.0328409
-4.7 -6.7 1.00046 -0.0350301
-4.7 -6.6 0.999491 -0.0363069
-4.7 -6.5 0.99859 -0.0370951
-4.7 -6.4 0.997808 -0.0377407
-4.7 -6.3 0.997089 -0.0383361
-4.7 -6.2 0.996395 -0.0389106
-4.7 -6.1 0.995708 -0.0394753
-4.7 -6 0.995015 -0.0400348
-4.7 -5.9 0.994309 -0.040591
-4.7 -5.8 0.993584 -0.0411444
-4.7 -5.7 0.992837 -0.0416951
-4.7 -5.6 0.992066 -0.0422424
-4.7 -5.5 0.991266 -0.0427857
-4.7 -5.4 0.990437 -0.0433238
-4.7 -5.3 0.989577 -0.0438557
-4.7 -5.2 0.988685 -0.0443801
-4.7 -5.1 0.987758 -0.0448954
-4.7 -5 0.986795 -0.0454001
-4.7 -4.9 0.985796 -0.0458924
-4.7 -4.8 0.984759 -0.0463706
-4.7 -4.7 0.983683 -0.0468327
-4.7 -4.6 0.982567 -0.0472765
-4.7 -4.5 0.981411 -0.0476999
-4.7 -4.4 0.980213 -0.0481005
-4.7 -4.3 0.978973 -0.0484758
-4.7 -4.2 0.977691 -0.0488231
-4.7 -4.1 0.976366 -0.0491397
-4.7 -4 0.974998 -0.0494227
-4.7 -3.9 0.973586 -0.0496689
-4.7 -3.8 0.972131 -0.0498751
-4.7 -3.7 0.970633 -0.050038
-4.7 -3.6 0.969092 -0.0501539
-4.7 -3.5 0.967509 -0.0502193
-4.7 -3.4 0.965886 -0.0502302
-4.7 -3.3 0.964222 -0.0501828
-4.7 -3.2 0.96252 -0.0500729
-4.7 -3.1 0.960781 -0.0498965
-4.7 -3 0.959009 -0.0496494
-4.7 -2.9 0.957204 -0.0493272
-4.7 -2.8 0.955372 -0.0489258
-4.7 -2.7 0.953514 -0.048441
-4.7 -2.6 0.951636 -0.0478688
-4.7 -2.5 0.949741 -0.0472053
-4.7 -2.4 0.947834 -0.0464466
-4.7 -2.3 0.945922 -0.0455894
-4.7 -2.2 0.944009 -0.0446305
-4.7 -2.1 0.942102 -0.0435671
-4.7 -2 0.940208 -0.0423967
-4.7 -1.9 0.938334 -0.0411176
-4.7 -1.8 0.936488 -0.0397281
-4.7 -1.7 0.934677 -0.0382277
-4.7 -1.6 0.93291 -0.0366162
-4.7 -1.5 0.931194 -0.0348939
-4.7 -1.4 0.92954 -0.0330623
-4.7 -1.3 0.927954 -0.0311234
-4.7 -1.2 0.926447 -0.0290799
-4.7 -1.1 0.925026 -0.0269355
-4.7 -1 0.923701 -0.024695
-4.7 -0.9 0.92248 -0.0223636
-4.7 -0.8 0.921371 -0.0199477
-4.7 -0.7 0.920381 -0.0174546
-4.7 -0.6 0.919517 -0.0148924
-4.7 -0.5 0.918786 -0.0122698
-4.7 -0.4 0.918194 -0.0095966
-4.7 -0.3 0.917744 -0.00688283
-4.7 -0.2 0.917441 -0.00413926
-4.7 -0.1 0.917286 -0.00137699
-4.7 -8.13238e-15 0.917283 0.0013926
-4.7 0.1 0.91743 0.00415803
-4.7 0.2 0.917727 0.00690782
-4.7 0.3 0.918172 0.00963065
-4.7 0.4 0.918762 0.0123155
-4.7 0.5 0.919494 0.0149517
-4.7 0.6 0.920361 0.0175293
-4.7 0.7 0.921358 0.0200388
-4.7 0.8 0.922478 0.0224715
-4.7 0.9 0.923714 0.0248194
-4.7 1 0.925056 0.0270755
-4.7 1.1 0.926498 0.0292336
-4.7 1.2 0.928029 0.0312885
-4.7 1.3 0.92964 0.033236
-4.7 1.4 0.931323 0.0350727
-4.7 1.5 0.933068 0.0367965
-4.7 1.6 0.934865 0.0384059
-4.7 1.7 0.936705 0.0399003
-4.7 1.8 0.938581 0.0412803
-4.7 1.9 0.940483 0.0425468
-4.7 2 0.942404 0.0437015
-4.7 2.1 0.944336 0.0447464
-4.7 2.2 0.946272 0.0456843
-4.7 2.3 0.948207 0.0465181
-4.7 2.4 0.950133 0.0472511
-4.7 2.5 0.952045 0.0478871
-4.7 2.6 0.953939 0.04843
-4.7 2.7 0.955809 0.0488841
-4.7 2.8 0.957651 0.0492537
-4.7 2.9 0.959463 0.0495432
-4.7 3 0.96124 0.0497571
-4.7 3.1 0.96298 0.0498999
-4.7 3.2 0.964681 0.0499761
-4.7 3.3 0.966342 0.0499899
-4.7 3.4 0.967959 0.0499456
-4.7 3.5 0.969534 0.0498473
-4.7 3.6 0.971064 0.0496991
-4.7 3.7 0.972549 0.0495047
-4.7 3.8 0.973989 0.049268
-4.7 3.9 0.975383 0.0489922
-4.7 4 0.976733 0.0486808
-4.7 4.1 0.978037 0.048337
-4.7 4.2 0.979297 0.0479635
-4.7 4.3 0.980514 0.0475631
-4.7 4.4 0.981687 0.0471382
-4.7 4.5 0.982818 0.0466909
-4.7 4.6 0.983908 0.0462231
-4.7 4.7 0.984958 0.045736
-4.7 4.8 0.985967 0.0452305
-4.7 4.9 0.986935 0.0447066
-4.7 5 0.987861 0.0441642
-4.7 5.1 0.988738 0.0436048
-4.7 5.2 0.989558 0.0430359
-4.7 5.3 0.990318 0.042476
-4.7 5.4 0.991036 0.0419435
-4.7 5.5 0.991738 0.0414353
-4.7 5.6 0.992433 0.0409329
-4.7 5.7 0.993116 0.040424
-4.7 5.8 0.993779 0.0399061
-4.7 5.9 0.994416 0.0393815
-4.7 6 0.995028 0.0388527
-4.7 6.1 0.995612 0.0383222
-4.7 6.2 0.996171 0.0377917
-4.7 6.3 0.996706 0.0372625
-4.7 6.4 0.997216 0.0367358
-4.7 6.5 0.997703 0.0362123
-4.7 6.6 0.998168 0.0356927
-4.7 6.7 0.998612 0.0351774
-4.7 6.8 0.999036 0.034667
-4.7 6.9 0.999441 0.0341618
-4.7 7 0.999827 0.0336621
-4.6 -7 0.998208 -0.0354688
-4.6 -6.9 0.997011 -0.0366787
-4.6 -6.8 1.00043 -0.0383196
-4.6 -6.7 1.00143 -0.037436
-4.6 -6.6 1.00016 -0.0375646
-4.6 -6.5 0.999182 -0.037997
-4.6 -6.4 0.998381 -0.0385079
-4.6 -6.3 0.997655 -0.0390483
-4.6 -6.2 0.99696 -0.0396031
-4.6 -6.1 0.996272 -0.0401663
-4.6 -6 0.995579 -0.0407348
-4.6 -5.9 0.994873 -0.0413067
-4.6 -5.8 0.994147 -0.0418806
-4.6 -5.7 0.993399 -0.0424552
-4.6 -5.6 0.992625 -0.0430293
-4.6 -5.5 0.991822 -0.0436015
-4.6 -5.4 0.990989 -0.0441707
-4.6 -5.3 0.990122 -0.0447353
-4.6 -5.2 0.989222 -0.0452939
-4.6 -5.1 0.988286 -0.0458449
-4.6 -5 0.987313 -0.0463866
-4.6 -4.9 0.986301 -0.0469171
-4.6 -4.8 0.985249 -0.0474346
-4.6 -4.7 0.984156 -0.047937
-4.6 -4.6 0.983022 -0.0484222
-4.6 -4.5 0.981844 -0.0488877
-4.6 -4.4 0.980623 -0.0493313
-4.6 -4.3 0.979357 -0.0497502
-4.6 -4.2 0.978046 -0.0501417
-4.6 -4.1 0.976689 -0.0505029
-4.6 -4 0.975285 -0.0508307
-4.6 -3.9 0.973835 -0.0511219
-4.6 -3.8 0.972338 -0.0513731
-4.6 -3.7 0.970795 -0.0515806
-4.6 -3.6 0.969205 -0.0517408
-4.6 -3.5 0.967569 -0.0518497
-4.6 -3.4 0.965889 -0.0519032
-4.6 -3.3 0.964164 -0.051897
-4.6 -3.2 0.962396 -0.0518267
-4.6 -3.1 0.960588 -0.0516879
-4.6 -3 0.958741 -0.0514758
-4.6 -2.9 0.956858 -0.0511858
-4.6 -2.8 0.954942 -0.0508133
-4.6 -2.7 0.952997 -0.0503536
-4.6 -2.6 0.951027 -0.0498022
-4.6 -2.5 0.949037 -0.0491547
-4.6 -2.4 0.947031 -0.0484068
-4.6 -2.3 0.945015 -0.0475545
-4.6 -2.2 0.942996 -0.0465943
-4.6 -2.1 0.94098 -0.0455227
-4.6 -2 0.938974 -0.0443371
-4.6 -1.9 0.936987 -0.0430349
-4.6 -1.8 0.935026 -0.0416146
-4.6 -1.7 0.933099 -0.0400748
-4.6 -1.6 0.931216 -0.0384153
-4.6 -1.5 0.929387 -0.0366362
-4.6 -1.4 0.927619 -0.0347386
-4.6 -1.3 0.925923 -0.0327245
-4.6 -1.2 0.924308 -0.0305967
-4.6 -1.1 0.922785 -0.028359
-4.6 -1 0.921362 -0.026016
-4.6 -0.9 0.920048 -0.0235735
-4.6 -0.8 0.918854 -0.0210382
-4.6 -0.7 0.917787 -0.018418
-4.6 -0.6 0.916855 -0.0157216
-4.6 -0.5 0.916066 -0.0129585
-4.6 -0.4 0.915425 -0.0101394
-4.6 -0.3 0.914938 -0.00727531
-4.6 -0.2 0.914609 -0.00437812
-4.6 -0.1 0.914441 -0.00146006
-4.6 -8.13238e-15 0.914436 0.00146632
-4.6 0.1 0.914593 0.0043883
-4.6 0.2 0.914913 0.00729319
-4.6 0.3 0.915392 0.0101685
-4.6 0.4 0.916028 0.013002
-4.6 0.5 0.916816 0.015782
-4.6 0.6 0.917749 0.0184974
-4.6 0.7 0.918823 0.0211379
-4.6 0.8 0.920028 0.0236939
-4.6 0.9 0.921356 0.0261568
-4.6 1 0.922798 0.0285191
-4.6 1.1 0.924345 0.030774
-4.6 1.2 0.925986 0.0329162
-4.6 1.3 0.927712 0.0349411
-4.6 1.4 0.929511 0.0368455
-4.6 1.5 0.931374 0.0386271
-4.6 1.6 0.933291 0.0402846
-4.6 1.7 0.935251 0.041818
-4.6 1.8 0.937245 0.043228
-4.6 1.9 0.939264 0.0445161
-4.6 2 0.941299 0.0456846
-4.6 2.1 0.943343 0.046736
-4.6 2.2 0.945389 0.0476734
-4.6 2.3 0.947429 0.0485002
-4.6 2.4 0.949457 0.0492201
-4.6 2.5 0.951467 0.0498376
-4.6 2.6 0.953453 0.0503571
-4.6 2.7 0.955412 0.0507833
-4.6 2.8 0.957339 0.0511212
-4.6 2.9 0.959229 0.0513756
-4.6 3 0.961081 0.0515517
-4.6 3.1 0.962892 0.0516542
-4.6 3.2 0.964658 0.051688
-4.6 3.3 0.966379 0.0516579
-4.6 3.4 0.968054 0.0515685
-4.6 3.5 0.969681 0.0514242
-4.6 3.6 0.971259 0.0512294
-4.6 3.7 0.972788 0.0509881
-4.6 3.8 0.974269 0.0507042
-4.6 3.9 0.975701 0.0503815
-4.6 4 0.977084 0.0500235
-4.6 4.1 0.978419 0.0496335
-4.6 4.2 0.979707 0.0492146
-4.6 4.3 0.980949 0.0487696
-4.6 4.4 0.982145 0.0483011
-4.6 4.5 0.983297 0.0478112
-4.6 4.6 0.984406 0.0473019
-4.6 4.7 0.985474 0.0467744
-4.6 4.8 0.986502 0.0462291
-4.6 4.9 0.987489 0.0456648
-4.6 5 0.988436 0.0450785
-4.6 5.1 0.989334 0.0444654
-4.6 5.2 0.99016 0.0438272
-4.6 5.3 0.99089 0.0431991
-4.6 5.4 0.991557 0.0426414
-4.6 5.5 0.99224 0.0421384
-4.6 5.6 0.992944 0.0416322
-4.6 5.7 0.993641 0.0411047
-4.6 5.8 0.994314 0.0405611
-4.6 5.9 0.994957 0.0400084
-4.6 6 0.995571 0.0394516
-4.6 6.1 0.996156 0.0388938
-4.6 6.2 0.996714 0.0383371
-4.6 6.3 0.997246 0.0377829
-4.6 6.4 0.997752 0.0372323
-4.6 6.5 0.998235 0.036686
-4.6 6.6 0.998696 0.0361447
-4.6 6.7 0.999135 0.0356086
-4.6 6.8 0.999554 0.0350784
-4.6 6.9 0.999952 0.0345542
-4.6 7 1.00033 0.0340364
-4.5 -7 0.999318 -0.0365359
-4.5 -6.9 0.999084 -0.0380066
-4.5 -6.8 1.00019 -0.0391504
-4.5 -6.7 1.00083 -0.0387911
-4.5 -6.6 1.00031 -0.0386083
-4.5 -6.5 0.999585 -0.0388349
-4.5 -6.4 0.998874 -0.0392489
-4.5 -6.3 0.99819 -0.039747
-4.5 -6.2 0.997516 -0.0402875
-4.5 -6.1 0.996841 -0.040852
-4.5 -6 0.996157 -0.0414314
-4.5 -5.9 0.995456 -0.0420205
-4.5 -5.8 0.994733 -0.0426161
-4.5 -5.7 0.993987 -0.0432159
-4.5 -5.6 0.993213 -0.0438179
-4.5 -5.5 0.992409 -0.0444205
-4.5 -5.4 0.991572 -0.045022
-4.5 -5.3 0.990702 -0.0456208
-4.5 -5.2 0.989795 -0.0462153
-4.5 -5.1 0.988851 -0.0468036
-4.5 -5 0.987869 -0.0473841
-4.5 -4.9 0.986845 -0.0479548
-4.5 -4.8 0.98578 -0.0485137
-4.5 -4.7 0.984672 -0.0490586
-4.5 -4.6 0.983519 -0.0495874
-4.5 -4.5 0.982322 -0.0500976
-4.5 -4.4 0.981077 -0.0505866
-4.5 -4.3 0.979786 -0.0510519
-4.5 -4.2 0.978446 -0.0514904
-4.5 -4.1 0.977057 -0.0518993
-4.5 -4 0.975619 -0.0522752
-4.5 -3.9 0.974131 -0.0526149
-4.5 -3.8 0.972592 -0.0529146
-4.5 -3.7 0.971003 -0.0531706
-4.5 -3.6 0.969364 -0.053379
-4.5 -3.5 0.967675 -0.0535355
-4.5 -3.4 0.965936 -0.0536358
-4.5 -3.3 0.964148 -0.0536753
-4.5 -3.2 0.962314 -0.0536491
-4.5 -3.1 0.960433 -0.0535524
-4.5 -3 0.95851 -0.05338
-4.5 -2.9 0.956545 -0.053127
-4.5 -2.8 0.954543 -0.052788
-4.5 -2.7 0.952506 -0.052358
-4.5 -2.6 0.95044 -0.0518318
-4.5 -2.5 0.948348 -0.0512045
-4.5 -2.4 0.946237 -0.0504713
-4.5 -2.3 0.944112 -0.0496277
-4.5 -2.2 0.941979 -0.0486693
-4.5 -2.1 0.939847 -0.0475926
-4.5 -2 0.937722 -0.0463939
-4.5 -1.9 0.935613 -0.0450706
-4.5 -1.8 0.933528 -0.0436204
-4.5 -1.7 0.931478 -0.0420418
-4.5 -1.6 0.929471 -0.040334
-4.5 -1.5 0.927517 -0.038497
-4.5 -1.4 0.925626 -0.0365316
-4.5 -1.3 0.92381 -0.0344396
-4.5 -1.2 0.922078 -0.0322237
-4.5 -1.1 0.920442 -0.0298877
-4.5 -1 0.918912 -0.0274366
-4.5 -0.9 0.917498 -0.0248762
-4.5 -0.8 0.91621 -0.0222139
-4.5 -0.7 0.915058 -0.0194578
-4.5 -0.6 0.914051 -0.0166175
-4.5 -0.5 0.913197 -0.0137034
-4.5 -0.4 0.912503 -0.0107272
-4.5 -0.3 0.911975 -0.00770099
-4.5 -0.2 0.911617 -0.0046379
-4.5 -0.1 0.911433 -0.00155146
-4.5 -8.13238e-15 0.911426 0.00154443
-4.5 0.1 0.911594 0.00463567
-4.5 0.2 0.911938 0.00770819
-4.5 0.3 0.912455 0.0107481
-4.5 0.4 0.913141 0.013742
-4.5 0.5 0.913991 0.0166769
-4.5 0.6 0.914998 0.0195405
-4.5 0.7 0.916155 0.0223215
-4.5 0.8 0.917454 0.0250095
-4.5 0.9 0.918884 0.0275951
-4.5 1 0.920435 0.0300701
-4.5 1.1 0.922097 0.0324274
-4.5 1.2 0.923859 0.0346613
-4.5 1.3 0.925709 0.036767
-4.5 1.4 0.927636 0.0387412
-4.5 1.5 0.929628 0.0405817
-4.5 1.6 0.931674 0.0422876
-4.5 1.7 0.933763 0.0438591
-4.5 1.8 0.935884 0.0452975
-4.5 1.9 0.938028 0.0466051
-4.5 2 0.940186 0.0477848
-4.5 2.1 0.942349 0.0488397
-4.5 2.2 0.944511 0.0497731
-4.5 2.3 0.946663 0.050589
-4.5 2.4 0.948798 0.0512917
-4.5 2.5 0.950911 0.0518861
-4.5 2.6 0.952996 0.0523773
-4.5 2.7 0.955048 0.0527708
-4.5 2.8 0.957062 0.053072
-4.5 2.9 0.959035 0.0532865
-4.5 3 0.960964 0.0534197
-4.5 3.1 0.962847 0.053477
-4.5 3.2 0.964681 0.0534639
-4.5 3.3 0.966464 0.0533853
-4.5 3.4 0.968196 0.0532463
-4.5 3.5 0.969876 0.0530517
-4.5 3.6 0.971503 0.0528061
-4.5 3.7 0.973077 0.0525138
-4.5 3.8 0.974598 0.0521792
-4.5 3.9 0.976066 0.051806
-4.5 4 0.977483 0.0513981
-4.5 4.1 0.978848 0.050959
-4.5 4.2 0.980163 0.0504918
-4.5 4.3 0.981429 0.0499996
-4.5 4.4 0.982647 0.0494852
-4.5 4.5 0.983819 0.0489509
-4.5 4.6 0.984946 0.0483989
-4.5 4.7 0.98603 0.0478305
-4.5 4.8 0.987075 0.0472463
-4.5 4.9 0.988083 0.0466451
-4.5 5 0.989056 0.0460214
-4.5 5.1 0.989993 0.0453608
-4.5 5.2 0.990861 0.044634
-4.5 5.3 0.991534 0.0438685
-4.5 5.4 0.992051 0.0433077
-4.5 5.5 0.992725 0.0428654
-4.5 5.6 0.99347 0.0423584
-4.5 5.7 0.994193 0.0418025
-4.5 5.8 0.994879 0.0412251
-4.5 5.9 0.995529 0.0406393
-4.5 6 0.996144 0.0400512
-4.5 6.1 0.996728 0.0394641
-4.5 6.2 0.997283 0.0388799
-4.5 6.3 0.997811 0.0382998
-4.5 6.4 0.998313 0.0377245
-4.5 6.5 0.998791 0.0371549
-4.5 6.6 0.999246 0.0365913
-4.5 6.7 0.999679 0.0360341
-4.5 6.8 1.00009 0.0354837
-4.5 6.9 1.00048 0.0349402
-4.5 7 1.00086 0.034404
-4.4 -7 1.00043 -0.0370014
-4.4 -6.9 1.00033 -0.0380142
-4.4 -6.8 1.00058 -0.0387711
-4.4 -6.7 1.00071 -0.0390502
-4.4 -6.6 1.00044 -0.039212
-4.4 -6.5 0.999927 -0.0394995
-4.4 -6.4 0.999333 -0.0399122
-4.4 -6.3 0.99871 -0.0404058
-4.4 -6.2 0.998073 -0.040949
-4.4 -6.1 0.99742 -0.0415233
-4.4 -6 0.99675 -0.0421184
-4.4 -5.9 0.996059 -0.0427279
-4.4 -5.8 0.995344 -0.0433475
-4.4 -5.7 0.994602 -0.0439743
-4.4 -5.6 0.993831 -0.044606
-4.4 -5.5 0.993027 -0.0452405
-4.4 -5.4 0.99219 -0.045876
-4.4 -5.3 0.991317 -0.0465107
-4.4 -5.2 0.990406 -0.0471427
-4.4 -5.1 0.989456 -0.0477703
-4.4 -5 0.988465 -0.0483914
-4.4 -4.9 0.987432 -0.0490043
-4.4 -4.8 0.986354 -0.0496066
-4.4 -4.7 0.985232 -0.0501963
-4.4 -4.6 0.984062 -0.0507711
-4.4 -4.5 0.982845 -0.0513284
-4.4 -4.4 0.981579 -0.0518657
-4.4 -4.3 0.980263 -0.0523802
-4.4 -4.2 0.978895 -0.0528689
-4.4 -4.1 0.977476 -0.0533286
-4.4 -4 0.976003 -0.0537561
-4.4 -3.9 0.974477 -0.0541477
-4.4 -3.8 0.972897 -0.0544997
-4.4 -3.7 0.971262 -0.0548082
-4.4 -3.6 0.969573 -0.0550689
-4.4 -3.5 0.967829 -0.0552775
-4.4 -3.4 0.966031 -0.0554292
-4.4 -3.3 0.96418 -0.0555191
-4.4 -3.2 0.962277 -0.0555419
-4.4 -3.1 0.960322 -0.0554924
-4.4 -3 0.958319 -0.055365
-4.4 -2.9 0.95627 -0.055154
-4.4 -2.8 0.954177 -0.0548537
-4.4 -2.7 0.952045 -0.0544584
-4.4 -2.6 0.949877 -0.0539624
-4.4 -2.5 0.947679 -0.0533602
-4.4 -2.4 0.945457 -0.0526462
-4.4 -2.3 0.943216 -0.0518154
-4.4 -2.2 0.940963 -0.0508629
-4.4 -2.1 0.938706 -0.0497842
-4.4 -2 0.936454 -0.0485755
-4.4 -1.9 0.934214 -0.0472332
-4.4 -1.8 0.931998 -0.0457548
-4.4 -1.7 0.929813 -0.0441381
-4.4 -1.6 0.927671 -0.0423821
-4.4 -1.5 0.925583 -0.0404862
-4.4 -1.4 0.92356 -0.0384512
-4.4 -1.3 0.921613 -0.0362786
-4.4 -1.2 0.919753 -0.0339709
-4.4 -1.1 0.917994 -0.0315319
-4.4 -1 0.916346 -0.0289666
-4.4 -0.9 0.91482 -0.0262812
-4.4 -0.8 0.91343 -0.0234833
-4.4 -0.7 0.912184 -0.0205819
-4.4 -0.6 0.911094 -0.0175872
-4.4 -0.5 0.910168 -0.0145107
-4.4 -0.4 0.909414 -0.011365
-4.4 -0.3 0.90884 -0.00816364
-4.4 -0.2 0.908451 -0.00492108
-4.4 -0.1 0.90825 -0.00165233
-4.4 -8.13238e-15 0.908239 0.00162717
-4.4 0.1 0.90842 0.00490177
-4.4 0.2 0.908791 0.00815582
-4.4 0.3 0.909349 0.0113739
-4.4 0.4 0.910091 0.0145411
-4.4 0.5 0.911009 0.0176431
-4.4 0.6 0.912097 0.0206664
-4.4 0.7 0.913347 0.0235983
-4.4 0.8 0.914748 0.0264277
-4.4 0.9 0.91629 0.0291442
-4.4 1 0.917961 0.0317389
-4.4 1.1 0.91975 0.0342045
-4.4 1.2 0.921644 0.0365346
-4.4 1.3 0.92363 0.0387245
-4.4 1.4 0.925696 0.0407707
-4.4 1.5 0.927828 0.0426712
-4.4 1.6 0.930014 0.0444253
-4.4 1.7 0.932242 0.0460334
-4.4 1.8 0.934501 0.047498
-4.4 1.9 0.936778 0.0488221
-4.4 2 0.939067 0.0500099
-4.4 2.1 0.941357 0.0510648
-4.4 2.2 0.943642 0.0519905
-4.4 2.3 0.945913 0.0527911
-4.4 2.4 0.948163 0.0534717
-4.4 2.5 0.950385 0.0540377
-4.4 2.6 0.952572 0.0544953
-4.4 2.7 0.954721 0.0548505
-4.4 2.8 0.956827 0.0551095
-4.4 2.9 0.958885 0.0552785
-4.4 3 0.960894 0.0553634
-4.4 3.1 0.962851 0.0553704
-4.4 3.2 0.964753 0.055305
-4.4 3.3 0.9666 0.0551729
-4.4 3.4 0.968391 0.0549796
-4.4 3.5 0.970124 0.0547301
-4.4 3.6 0.9718 0.0544293
-4.4 3.7 0.973418 0.054082
-4.4 3.8 0.974979 0.0536926
-4.4 3.9 0.976484 0.0532652
-4.4 4 0.977933 0.0528039
-4.4 4.1 0.979328 0.0523123
-4.4 4.2 0.980668 0.0517939
-4.4 4.3 0.981957 0.0512518
-4.4 4.4 0.983195 0.0506891
-4.4 4.5 0.984385 0.0501083
-4.4 4.6 0.985528 0.049512
-4.4 4.7 0.986627 0.0489021
-4.4 4.8 0.987685 0.0482802
-4.4 4.9 0.988709 0.0476467
-4.4 5 0.989705 0.0469997
-4.4 5.1 0.990691 0.0463286
-4.4 5.2 0.991681 0.0455861
-4.4 5.3 0.992382 0.0446167
-4.4 5.4 0.992384 0.0441131
-4.4 5.5 0.993205 0.0437073
-4.4 5.6 0.994034 0.043134
-4.4 5.7 0.994787 0.0425203
-4.4 5.8 0.995483 0.0418967
-4.4 5.9 0.996134 0.041272
-4.4 6 0.996748 0.0406497
-4.4 6.1 0.997329 0.0400316
-4.4 6.2 0.997879 0.0394186
-4.4 6.3 0.998402 0.0388116
-4.4 6.4 0.998898 0.0382112
-4.4 6.5 0.999369 0.0376176
-4.4 6.6 0.999817 0.0370314
-4.4 6.7 1.00024 0.0364527
-4.4 6.8 1.00065 0.0358819
-4.4 6.9 1.00103 0.035319
-4.4 7 1.0014 0.0347643
-4.3 -7 1.00133 -0.0372702
-4.3 -6.9 1.00117 -0.0380739
-4.3 -6.8 1.00112 -0.038745
-4.3 -6.7 1.00101 -0.0392283
-4.3 -6.6 1.00074 -0.0396194
-4.3 -6.5 1.00032 -0.0400284
-4.3 -6.4 0.999808 -0.0404949
-4.3 -6.3 0.999242 -0.0410164
-4.3 -6.2 0.998643 -0.04158
-4.3 -6.1 0.998016 -0.0421744
-4.3 -6 0.997364 -0.0427914
-4.3 -5.9 0.996687 -0.0434252
-4.3 -5.8 0.995982 -0.0440718
-4.3 -5.7 0.995247 -0.0447279
-4.3 -5.6 0.99448 -0.0453913
-4.3 -5.5 0.99368 -0.0460595
-4.3 -5.4 0.992844 -0.0467308
-4.3 -5.3 0.99197 -0.0474032
-4.3 -5.2 0.991056 -0.0480746
-4.3 -5.1 0.990101 -0.0487433
-4.3 -5 0.989104 -0.0494071
-4.3 -4.9 0.988062 -0.0500641
-4.3 -4.8 0.986974 -0.0507122
-4.3 -4.7 0.985838 -0.051349
-4.3 -4.6 0.984653 -0.0519722
-4.3 -4.5 0.983418 -0.0525793
-4.3 -4.4 0.982131 -0.0531676
-4.3 -4.3 0.980791 -0.0537343
-4.3 -4.2 0.979397 -0.0542762
-4.3 -4.1 0.977947 -0.0547902
-4.3 -4 0.976441 -0.0552726
-4.3 -3.9 0.974877 -0.05572
-4.3 -3.8 0.973256 -0.0561283
-4.3 -3.7 0.971575 -0.0564934
-4.3 -3.6 0.969836 -0.0568109
-4.3 -3.5 0.968038 -0.0570763
-4.3 -3.4 0.966181 -0.0572843
-4.3 -3.3 0.964265 -0.0574298
-4.3 -3.2 0.962291 -0.0575071
-4.3 -3.1 0.96026 -0.0575103
-4.3 -3 0.958175 -0.0574334
-4.3 -2.9 0.956037 -0.0572702
-4.3 -2.8 0.953851 -0.0570143
-4.3 -2.7 0.951619 -0.0566595
-4.3 -2.6 0.949345 -0.0561993
-4.3 -2.5 0.947035 -0.0556275
-4.3 -2.4 0.944695 -0.054938
-4.3 -2.3 0.942331 -0.0541249
-4.3 -2.2 0.939951 -0.0531826
-4.3 -2.1 0.937562 -0.0521061
-4.3 -2 0.935173 -0.0508905
-4.3 -1.9 0.932794 -0.0495321
-4.3 -1.8 0.930434 -0.0480274
-4.3 -1.7 0.928106 -0.0463739
-4.3 -1.6 0.925819 -0.0445699
-4.3 -1.5 0.923585 -0.0426148
-4.3 -1.4 0.921417 -0.0405086
-4.3 -1.3 0.919328 -0.0382527
-4.3 -1.2 0.917329 -0.0358494
-4.3 -1.1 0.915434 -0.0333025
-4.3 -1 0.913656 -0.0306168
-4.3 -0.9 0.912009 -0.0277988
-4.3 -0.8 0.910504 -0.0248565